#LAMMPS data file generated on 2016-12-08 via gen_data.py, version 1 Nov 2016

21 atoms
1  atom types
20 bonds
1 bond types
0 angles
0 angle types
0 dihedrals
0 dihedral types

0.0000000000000000e+00   1.0000000000000000e+02    xlo xhi
0.0000000000000000e+00   1.0000000000000000e+02    ylo yhi
0.0000000000000000e+00   1.0000000000000000e+02    zlo zhi

Masses

1   1.0000

Pair Coeffs

1  1.00000  1.0000

Bond Coeffs

1  1.00000  0.0000

Atoms

1       1  1  0.00000   25.0000000000  50.0000000000 50.0000000000 0 0 0
2       1  1  0.00000   26.0000000000  50.0000000000 50.0000000000 0 0 0
3       1  1  0.00000   27.0000000000  50.0000000000 50.0000000000 0 0 0
4       1  1  0.00000   28.0000000000  50.0000000000 50.0000000000 0 0 0
5       1  1  0.00000   29.0000000000  50.0000000000 50.0000000000 0 0 0
6       1  1  0.00000   30.0000000000  50.0000000000 50.0000000000 0 0 0
7       1  1  0.00000   31.0000000000  50.0000000000 50.0000000000 0 0 0
8       1  1  0.00000   32.0000000000  50.0000000000 50.0000000000 0 0 0
9       1  1  0.00000   33.0000000000  50.0000000000 50.0000000000 0 0 0
10      1  1  0.00000   34.0000000000  50.0000000000 50.0000000000 0 0 0
11      1  1  0.00000   35.0000000000  50.0000000000 50.0000000000 0 0 0
12      1  1  0.00000   36.0000000000  50.0000000000 50.0000000000 0 0 0
13      1  1  0.00000   37.0000000000  50.0000000000 50.0000000000 0 0 0
14      1  1  0.00000   38.0000000000  50.0000000000 50.0000000000 0 0 0
15      1  1  0.00000   39.0000000000  50.0000000000 50.0000000000 0 0 0
16      1  1  0.00000   40.0000000000  50.0000000000 50.0000000000 0 0 0
17      1  1  0.00000   41.0000000000  50.0000000000 50.0000000000 0 0 0
18      1  1  0.00000   42.0000000000  50.0000000000 50.0000000000 0 0 0
19      1  1  0.00000   43.0000000000  50.0000000000 50.0000000000 0 0 0
20      1  1  0.00000   44.0000000000  50.0000000000 50.0000000000 0 0 0
21      1  1  0.00000   45.0000000000  50.0000000000 50.0000000000 0 0 0

Bonds

1       1  1   2 
2       1  2   3 
3       1  3   4 
4       1  4   5 
5       1  5   6 
6       1  6   7 
7       1  7   8 
8       1  8   9 
9       1  9   10
10      1  10  11
11      1  11  12
12      1  12  13
13      1  13  14
14      1  14  15
15      1  15  16
16      1  16  17
17      1  17  18
18      1  18  19
19      1  19  20
20      1  20  21
